<?xml version="1.0" encoding="UTF-8"?>

<!-- generated on Thu Feb 22 11:39:39 2018 by SUMO Version svn
<?xml version="1.0" encoding="UTF-8"?>

<configuration xmlns:xsi="http://www.w3.org/2001/XMLSchema-instance" xsi:noNamespaceSchemaLocation="http://sumo.dlr.de/xsd/sumoConfiguration.xsd">

    <input>
        <net-file value="/Users/danvk/github/sumo-web3d/sumo_web3d/server/../scenarios/bologna-acosta/joined_buslanes.net.xml"/>
        <route-files value="/Users/danvk/github/sumo-web3d/sumo_web3d/server/../scenarios/bologna-acosta/joined.rou.xml,/Users/danvk/github/sumo-web3d/sumo_web3d/server/../scenarios/bologna-acosta/joined_busses.rou.xml"/>
        <additional-files value="/Users/danvk/github/sumo-web3d/sumo_web3d/server/../scenarios/bologna-acosta/joined_bus_stops.add.xml,/Users/danvk/github/sumo-web3d/sumo_web3d/server/../scenarios/bologna-acosta/joined_detectors.add.xml,/Users/danvk/github/sumo-web3d/sumo_web3d/server/../scenarios/bologna-acosta/joined_vtypes.add.xml,/Users/danvk/github/sumo-web3d/sumo_web3d/server/../scenarios/bologna-acosta/joined_tls.add.xml,/Users/danvk/github/sumo-web3d/sumo_web3d/server/../scenarios/bologna-acosta/acosta-poly.xml"/>
    </input>

    <output>
        <tripinfo-output value="/Users/danvk/github/sumo-web3d/sumo_web3d/server/../scenarios/bologna-acosta/tripinfos.xml"/>
        <save-state.prefix value="/Users/danvk/github/sumo-web3d/sumo_web3d/server/../scenarios/bologna-acosta/state"/>
    </output>

    <report>
        <log value="/Users/danvk/github/sumo-web3d/sumo_web3d/server/../scenarios/bologna-acosta/sumo_log.txt"/>
        <no-step-log value="true"/>
    </report>

    <emissions>
        <phemlight-path value="/Users/danvk/github/sumo-web3d/sumo_web3d/server/../scenarios/bologna-acosta/./PHEMlight/"/>
    </emissions>

    <traci_server>
        <remote-port value="63099"/>
    </traci_server>

</configuration>
-->

<tripinfos xmlns:xsi="http://www.w3.org/2001/XMLSchema-instance" xsi:noNamespaceSchemaLocation="http://sumo.dlr.de/xsd/tripinfo_file.xsd">
    <tripinfo id="Pertini_20_1" depart="2.00" departLane="b63[0]_2" departPos="0.00" departSpeed="0.00" departDelay="0.00" arrival="75.00" arrivalLane="b4[1][1][1]_1" arrivalPos="172.70" arrivalSpeed="13.55" duration="73.00" routeLength="889.67" waitSteps="0" timeLoss="8.53" rerouteNo="0" devices="tripinfo_Pertini_20_1" vType="passenger1" speedFactor="1.00" vaporized=""/>
    <tripinfo id="Pertini_20_0" depart="0.00" departLane="b63[0]_1" departPos="0.00" departSpeed="0.00" departDelay="0.00" arrival="76.00" arrivalLane="b4[1][1][1]_0" arrivalPos="172.70" arrivalSpeed="13.25" duration="76.00" routeLength="889.67" waitSteps="1" timeLoss="11.59" rerouteNo="0" devices="tripinfo_Pertini_20_0" vType="passenger1" speedFactor="1.00" vaporized=""/>
    <tripinfo id="Pertini_20_2" depart="5.00" departLane="b63[0]_2" departPos="0.00" departSpeed="0.00" departDelay="1.00" arrival="77.00" arrivalLane="b4[1][1][1]_1" arrivalPos="172.70" arrivalSpeed="13.83" duration="72.00" routeLength="889.67" waitSteps="0" timeLoss="7.40" rerouteNo="0" devices="tripinfo_Pertini_20_2" vType="passenger2a" speedFactor="1.00" vaporized=""/>
    <tripinfo id="Prati_Capraia_10_0" depart="0.00" departLane="b3[0]_0" departPos="0.00" departSpeed="0.00" departDelay="0.00" arrival="79.00" arrivalLane="b10_0" arrivalPos="226.64" arrivalSpeed="13.39" duration="79.00" routeLength="410.85" waitSteps="40" timeLoss="48.99" rerouteNo="0" devices="tripinfo_Prati_Capraia_10_0" vType="passenger2b" speedFactor="1.00" vaporized=""/>
    <tripinfo id="Prati_Capraia_10_1" depart="4.00" departLane="b3[0]_0" departPos="0.00" departSpeed="0.00" departDelay="0.00" arrival="81.00" arrivalLane="b10_0" arrivalPos="226.64" arrivalSpeed="12.68" duration="77.00" routeLength="410.85" waitSteps="35" timeLoss="47.06" rerouteNo="0" devices="tripinfo_Prati_Capraia_10_1" vType="passenger1" speedFactor="1.00" vaporized=""/>
    <tripinfo id="Pepoli_8_16" depart="27.00" departLane="a210_0" departPos="0.00" departSpeed="0.00" departDelay="0.00" arrival="83.00" arrivalLane="a134b_0" arrivalPos="158.70" arrivalSpeed="12.44" duration="56.00" routeLength="693.78" waitSteps="0" timeLoss="5.56" rerouteNo="0" devices="tripinfo_Pepoli_8_16" vType="passenger2a" speedFactor="1.00" vaporized=""/>
    <tripinfo id="Pertini_20_7" depart="15.00" departLane="b63[0]_2" departPos="0.00" departSpeed="0.00" departDelay="0.00" arrival="86.00" arrivalLane="b4[1][1][1]_0" arrivalPos="172.70" arrivalSpeed="13.71" duration="71.00" routeLength="889.67" waitSteps="0" timeLoss="6.02" rerouteNo="0" devices="tripinfo_Pertini_20_7" vType="passenger2a" speedFactor="1.00" vaporized=""/>
    <tripinfo id="Prati_Capraia_10_7" depart="34.00" departLane="b3[0]_0" departPos="0.00" departSpeed="0.00" departDelay="0.00" arrival="87.00" arrivalLane="b10_0" arrivalPos="226.64" arrivalSpeed="13.68" duration="53.00" routeLength="410.85" waitSteps="11" timeLoss="22.63" rerouteNo="0" devices="tripinfo_Prati_Capraia_10_7" vType="passenger1" speedFactor="1.00" vaporized=""/>
    <tripinfo id="Pertini_20_9" depart="19.00" departLane="b63[0]_1" departPos="0.00" departSpeed="0.00" departDelay="0.00" arrival="90.00" arrivalLane="b4[1][1][1]_0" arrivalPos="172.70" arrivalSpeed="12.83" duration="71.00" routeLength="889.67" waitSteps="0" timeLoss="6.48" rerouteNo="0" devices="tripinfo_Pertini_20_9" vType="passenger1" speedFactor="1.00" vaporized=""/>
    <tripinfo id="Pertini_20_10" depart="21.00" departLane="b63[0]_2" departPos="0.00" departSpeed="0.00" departDelay="0.00" arrival="92.00" arrivalLane="b4[1][1][1]_0" arrivalPos="172.70" arrivalSpeed="13.09" duration="71.00" routeLength="889.67" waitSteps="0" timeLoss="6.18" rerouteNo="0" devices="tripinfo_Pertini_20_10" vType="passenger1" speedFactor="1.00" vaporized=""/>
    <tripinfo id="Pepoli_8_21" depart="37.00" departLane="a210_0" departPos="0.00" departSpeed="0.00" departDelay="1.00" arrival="93.00" arrivalLane="a134b_0" arrivalPos="158.70" arrivalSpeed="12.76" duration="56.00" routeLength="693.78" waitSteps="0" timeLoss="5.42" rerouteNo="0" devices="tripinfo_Pepoli_8_21" vType="passenger1" speedFactor="1.00" vaporized=""/>
    <tripinfo id="Certosa_9_0" depart="0.00" departLane="b22[0]_1" departPos="0.00" departSpeed="0.00" departDelay="0.00" arrival="94.00" arrivalLane="b2[1][1][1]b_1" arrivalPos="323.28" arrivalSpeed="13.01" duration="94.00" routeLength="620.07" waitSteps="37" timeLoss="49.12" rerouteNo="0" devices="tripinfo_Certosa_9_0" vType="passenger1" speedFactor="1.00" vaporized=""/>
    <tripinfo id="Pertini_20_12" depart="25.00" departLane="b63[0]_2" departPos="0.00" departSpeed="0.00" departDelay="0.00" arrival="96.00" arrivalLane="b4[1][1][1]_0" arrivalPos="172.70" arrivalSpeed="13.10" duration="71.00" routeLength="889.67" waitSteps="0" timeLoss="6.36" rerouteNo="0" devices="tripinfo_Pertini_20_12" vType="passenger2a" speedFactor="1.00" vaporized=""/>
    <tripinfo id="Pepoli_8_23" depart="40.00" departLane="a210_0" departPos="0.00" departSpeed="0.00" departDelay="1.00" arrival="96.00" arrivalLane="a134b_0" arrivalPos="158.70" arrivalSpeed="13.41" duration="56.00" routeLength="693.78" waitSteps="0" timeLoss="5.32" rerouteNo="0" devices="tripinfo_Pepoli_8_23" vType="passenger4" speedFactor="1.00" vaporized=""/>
    <tripinfo id="Prati_Capraia_100_2" depart="9.00" departLane="b3[0]_1" departPos="0.00" departSpeed="0.00" departDelay="0.00" arrival="99.00" arrivalLane="b3[1]b_0" arrivalPos="241.22" arrivalSpeed="13.67" duration="90.00" routeLength="624.73" waitSteps="33" timeLoss="44.58" rerouteNo="0" devices="tripinfo_Prati_Capraia_100_2" vType="passenger1" speedFactor="1.00" vaporized=""/>
    <tripinfo id="Pertini_20_11" depart="23.00" departLane="b63[0]_1" departPos="0.00" departSpeed="0.00" departDelay="0.00" arrival="99.00" arrivalLane="b4[1][1][1]_0" arrivalPos="172.70" arrivalSpeed="13.44" duration="76.00" routeLength="889.67" waitSteps="0" timeLoss="11.58" rerouteNo="0" devices="tripinfo_Pertini_20_11" vType="passenger1" speedFactor="1.00" vaporized=""/>
    <tripinfo id="Pepoli_8_25" depart="43.00" departLane="a210_0" departPos="0.00" departSpeed="0.00" departDelay="1.00" arrival="99.00" arrivalLane="a134b_0" arrivalPos="158.70" arrivalSpeed="13.28" duration="56.00" routeLength="693.78" waitSteps="0" timeLoss="5.82" rerouteNo="0" devices="tripinfo_Pepoli_8_25" vType="passenger2b" speedFactor="1.00" vaporized=""/>
    <tripinfo id="Prati_Capraia_100_3" depart="14.00" departLane="b3[0]_0" departPos="0.00" departSpeed="0.00" departDelay="0.00" arrival="100.00" arrivalLane="b3[1]b_1" arrivalPos="241.22" arrivalSpeed="12.95" duration="86.00" routeLength="624.73" waitSteps="28" timeLoss="40.18" rerouteNo="0" devices="tripinfo_Prati_Capraia_100_3" vType="passenger3" speedFactor="1.00" vaporized=""/>
    <tripinfo id="Pertini_20_14" depart="30.00" departLane="b63[0]_1" departPos="0.00" departSpeed="0.00" departDelay="0.00" arrival="101.00" arrivalLane="b4[1][1][1]_1" arrivalPos="172.70" arrivalSpeed="13.67" duration="71.00" routeLength="889.67" waitSteps="0" timeLoss="6.47" rerouteNo="0" devices="tripinfo_Pertini_20_14" vType="passenger2a" speedFactor="1.00" vaporized=""/>
    <tripinfo id="Prati_Capraia_100_4" depart="19.00" departLane="b3[0]_1" departPos="0.00" departSpeed="0.00" departDelay="0.00" arrival="101.00" arrivalLane="b3[1]b_0" arrivalPos="241.22" arrivalSpeed="13.71" duration="82.00" routeLength="624.73" waitSteps="25" timeLoss="36.48" rerouteNo="0" devices="tripinfo_Prati_Capraia_100_4" vType="passenger1" speedFactor="1.00" vaporized=""/>
    <tripinfo id="Gandhi_80_11" depart="17.00" departLane="b1[0]_0" departPos="0.00" departSpeed="0.00" departDelay="0.00" arrival="102.00" arrivalLane="b21_0" arrivalPos="103.70" arrivalSpeed="13.48" duration="85.00" routeLength="515.76" waitSteps="39" timeLoss="47.04" rerouteNo="0" devices="tripinfo_Gandhi_80_11" vType="passenger1" speedFactor="1.00" vaporized=""/>
    <tripinfo id="Prati_Capraia_100_5" depart="24.00" departLane="b3[0]_0" departPos="0.00" departSpeed="0.00" departDelay="0.00" arrival="102.00" arrivalLane="b3[1]b_1" arrivalPos="241.22" arrivalSpeed="13.74" duration="78.00" routeLength="624.73" waitSteps="19" timeLoss="32.05" rerouteNo="0" devices="tripinfo_Prati_Capraia_100_5" vType="passenger2b" speedFactor="1.00" vaporized=""/>
    <tripinfo id="Pertini_20_15" depart="32.00" departLane="b63[0]_2" departPos="0.00" departSpeed="0.00" departDelay="0.00" arrival="103.00" arrivalLane="b4[1][1][1]_0" arrivalPos="172.70" arrivalSpeed="13.45" duration="71.00" routeLength="889.67" waitSteps="0" timeLoss="6.48" rerouteNo="0" devices="tripinfo_Pertini_20_15" vType="passenger2b" speedFactor="1.00" vaporized=""/>
    <tripinfo id="Prati_Capraia_100_9" depart="43.00" departLane="b3[0]_0" departPos="0.00" departSpeed="0.00" departDelay="0.00" arrival="104.00" arrivalLane="b3[1]b_0" arrivalPos="241.22" arrivalSpeed="13.24" duration="61.00" routeLength="624.73" waitSteps="3" timeLoss="15.91" rerouteNo="0" devices="tripinfo_Prati_Capraia_100_9" vType="passenger2b" speedFactor="1.00" vaporized=""/>
    <tripinfo id="Prati_Capraia_100_8" depart="38.00" departLane="b3[0]_1" departPos="0.00" departSpeed="0.00" departDelay="0.00" arrival="105.00" arrivalLane="b3[1]b_1" arrivalPos="241.22" arrivalSpeed="13.11" duration="67.00" routeLength="624.73" waitSteps="9" timeLoss="21.34" rerouteNo="0" devices="tripinfo_Prati_Capraia_100_8" vType="passenger3" speedFactor="1.00" vaporized=""/>
    <tripinfo id="Pertini_20_16" depart="34.00" departLane="b63[0]_1" departPos="0.00" departSpeed="0.00" departDelay="0.00" arrival="105.00" arrivalLane="b4[1][1][1]_0" arrivalPos="172.70" arrivalSpeed="12.64" duration="71.00" routeLength="889.67" waitSteps="0" timeLoss="6.30" rerouteNo="0" devices="tripinfo_Pertini_20_16" vType="passenger3" speedFactor="1.00" vaporized=""/>
    <tripinfo id="Prati_Capraia_100_11" depart="53.00" departLane="b3[0]_0" departPos="0.00" departSpeed="0.00" departDelay="0.00" arrival="106.00" arrivalLane="b3[1]b_0" arrivalPos="241.22" arrivalSpeed="12.84" duration="53.00" routeLength="624.73" waitSteps="0" timeLoss="7.73" rerouteNo="0" devices="tripinfo_Prati_Capraia_100_11" vType="passenger3" speedFactor="1.00" vaporized=""/>
    <tripinfo id="Prati_Capraia_100_10" depart="48.00" departLane="b3[0]_1" departPos="0.00" departSpeed="0.00" departDelay="0.00" arrival="107.00" arrivalLane="b3[1]b_1" arrivalPos="241.22" arrivalSpeed="13.05" duration="59.00" routeLength="624.73" waitSteps="0" timeLoss="13.11" rerouteNo="0" devices="tripinfo_Prati_Capraia_100_10" vType="passenger4" speedFactor="1.00" vaporized=""/>
    <tripinfo id="Pertini_20_17" depart="36.00" departLane="b63[0]_2" departPos="0.00" departSpeed="0.00" departDelay="0.00" arrival="107.00" arrivalLane="b4[1][1][1]_0" arrivalPos="172.70" arrivalSpeed="13.29" duration="71.00" routeLength="889.67" waitSteps="0" timeLoss="6.08" rerouteNo="0" devices="tripinfo_Pertini_20_17" vType="passenger4" speedFactor="1.00" vaporized=""/>
    <tripinfo id="Prati_Capraia_100_12" depart="58.00" departLane="b3[0]_1" departPos="0.00" departSpeed="0.00" departDelay="0.00" arrival="109.00" arrivalLane="b3[1]b_0" arrivalPos="241.22" arrivalSpeed="12.62" duration="51.00" routeLength="624.73" waitSteps="0" timeLoss="5.14" rerouteNo="0" devices="tripinfo_Prati_Capraia_100_12" vType="passenger1" speedFactor="1.00" vaporized=""/>
    <tripinfo id="Pertini_20_18" depart="38.00" departLane="b63[0]_1" departPos="0.00" departSpeed="0.00" departDelay="0.00" arrival="109.00" arrivalLane="b4[1][1][1]_0" arrivalPos="172.70" arrivalSpeed="13.68" duration="71.00" routeLength="889.67" waitSteps="0" timeLoss="6.06" rerouteNo="0" devices="tripinfo_Pertini_20_18" vType="passenger5" speedFactor="1.00" vaporized=""/>
    <tripinfo id="Pertini_20_19" depart="40.00" departLane="b63[0]_2" departPos="0.00" departSpeed="0.00" departDelay="0.00" arrival="110.00" arrivalLane="b4[1][1][1]_1" arrivalPos="172.70" arrivalSpeed="13.43" duration="70.00" routeLength="889.67" waitSteps="0" timeLoss="5.71" rerouteNo="0" devices="tripinfo_Pertini_20_19" vType="passenger2a" speedFactor="1.00" vaporized=""/>
    <tripinfo id="Gandhi_80_45" depart="70.00" departLane="b1[0]_0" departPos="0.00" departSpeed="0.00" departDelay="0.00" arrival="112.00" arrivalLane="b21_0" arrivalPos="103.70" arrivalSpeed="13.57" duration="42.00" routeLength="515.76" waitSteps="0" timeLoss="4.77" rerouteNo="0" devices="tripinfo_Gandhi_80_45" vType="passenger1" speedFactor="1.00" vaporized=""/>
    <tripinfo id="Prati_Capraia_100_13" depart="63.00" departLane="b3[0]_0" departPos="0.00" departSpeed="0.00" departDelay="0.00" arrival="113.00" arrivalLane="b3[1]b_0" arrivalPos="241.22" arrivalSpeed="13.69" duration="50.00" routeLength="624.73" waitSteps="0" timeLoss="4.76" rerouteNo="0" devices="tripinfo_Prati_Capraia_100_13" vType="passenger2b" speedFactor="1.00" vaporized=""/>
    <tripinfo id="Pertini_20_21" depart="45.00" departLane="b63[0]_1" departPos="0.00" departSpeed="0.00" departDelay="0.00" arrival="116.00" arrivalLane="b4[1][1][1]_0" arrivalPos="172.70" arrivalSpeed="12.86" duration="71.00" routeLength="889.67" waitSteps="0" timeLoss="6.43" rerouteNo="0" devices="tripinfo_Pertini_20_21" vType="passenger4" speedFactor="1.00" vaporized=""/>
    <tripinfo id="Pertini_20_22" depart="47.00" departLane="b63[0]_2" departPos="0.00" departSpeed="0.00" departDelay="0.00" arrival="118.00" arrivalLane="b4[1][1][1]_1" arrivalPos="172.70" arrivalSpeed="13.43" duration="71.00" routeLength="889.67" waitSteps="0" timeLoss="6.18" rerouteNo="0" devices="tripinfo_Pertini_20_22" vType="passenger3" speedFactor="1.00" vaporized=""/>
    <tripinfo id="Prati_Capraia_100_14" depart="68.00" departLane="b3[0]_1" departPos="0.00" departSpeed="0.00" departDelay="0.00" arrival="118.00" arrivalLane="b3[1]b_0" arrivalPos="241.22" arrivalSpeed="13.45" duration="50.00" routeLength="624.73" waitSteps="0" timeLoss="4.72" rerouteNo="0" devices="tripinfo_Prati_Capraia_100_14" vType="passenger2b" speedFactor="1.00" vaporized=""/>
    <tripinfo id="Audinot_7_0" depart="0.00" departLane="a131_0" departPos="0.00" departSpeed="0.00" departDelay="0.00" arrival="123.00" arrivalLane="a209_0" arrivalPos="395.74" arrivalSpeed="12.76" duration="123.00" routeLength="875.18" waitSteps="47" timeLoss="59.38" rerouteNo="0" devices="tripinfo_Audinot_7_0" vType="passenger4" speedFactor="1.00" vaporized=""/>
    <tripinfo id="Pertini_20_25" depart="53.00" departLane="b63[0]_1" departPos="0.00" departSpeed="0.00" departDelay="0.00" arrival="124.00" arrivalLane="b4[1][1][1]_0" arrivalPos="172.70" arrivalSpeed="12.83" duration="71.00" routeLength="889.67" waitSteps="0" timeLoss="6.42" rerouteNo="0" devices="tripinfo_Pertini_20_25" vType="passenger2a" speedFactor="1.00" vaporized=""/>
    <tripinfo id="Pertini_20_26" depart="55.00" departLane="b63[0]_2" departPos="0.00" departSpeed="0.00" departDelay="0.00" arrival="125.00" arrivalLane="b4[1][1][1]_1" arrivalPos="172.70" arrivalSpeed="13.03" duration="70.00" routeLength="889.67" waitSteps="0" timeLoss="5.71" rerouteNo="0" devices="tripinfo_Pertini_20_26" vType="passenger2a" speedFactor="1.00" vaporized=""/>
    <tripinfo id="Costa_3_21" depart="54.00" departLane="a78[0]_0" departPos="0.00" departSpeed="0.00" departDelay="0.00" arrival="125.00" arrivalLane="a14_0" arrivalPos="90.27" arrivalSpeed="13.47" duration="71.00" routeLength="854.03" waitSteps="0" timeLoss="8.54" rerouteNo="0" devices="tripinfo_Costa_3_21" vType="passenger1" speedFactor="1.00" vaporized=""/>
    <tripinfo id="Prati_Capraia_10_19" depart="92.00" departLane="b3[0]_0" departPos="0.00" departSpeed="0.00" departDelay="0.00" arrival="126.00" arrivalLane="b10_0" arrivalPos="226.64" arrivalSpeed="13.59" duration="34.00" routeLength="410.85" waitSteps="0" timeLoss="3.91" rerouteNo="0" devices="tripinfo_Prati_Capraia_10_19" vType="passenger3" speedFactor="1.00" vaporized=""/>
    <tripinfo id="Prati_Capraia_100_16" depart="77.00" departLane="b3[0]_0" departPos="0.00" departSpeed="0.00" departDelay="0.00" arrival="128.00" arrivalLane="b3[1]b_0" arrivalPos="241.22" arrivalSpeed="12.86" duration="51.00" routeLength="624.73" waitSteps="0" timeLoss="5.57" rerouteNo="0" devices="tripinfo_Prati_Capraia_100_16" vType="passenger2b" speedFactor="1.00" vaporized=""/>
    <tripinfo id="Pertini_20_27" depart="58.00" departLane="b63[0]_1" departPos="0.00" departSpeed="0.00" departDelay="0.00" arrival="129.00" arrivalLane="b4[1][1][1]_0" arrivalPos="172.70" arrivalSpeed="12.68" duration="71.00" routeLength="889.67" waitSteps="0" timeLoss="6.05" rerouteNo="0" devices="tripinfo_Pertini_20_27" vType="passenger1" speedFactor="1.00" vaporized=""/>
    <tripinfo id="Pertini_20_28" depart="60.00" departLane="b63[0]_2" departPos="0.00" departSpeed="0.00" departDelay="0.00" arrival="130.00" arrivalLane="b4[1][1][1]_1" arrivalPos="172.70" arrivalSpeed="13.13" duration="70.00" routeLength="889.67" waitSteps="0" timeLoss="5.41" rerouteNo="0" devices="tripinfo_Pertini_20_28" vType="passenger1" speedFactor="1.00" vaporized=""/>
    <tripinfo id="Pertini_10_20" depart="43.00" departLane="b63[0]_2" departPos="0.00" departSpeed="0.00" departDelay="0.00" arrival="130.00" arrivalLane="b10_0" arrivalPos="226.64" arrivalSpeed="13.02" duration="87.00" routeLength="944.54" waitSteps="5" timeLoss="18.26" rerouteNo="0" devices="tripinfo_Pertini_10_20" vType="passenger4" speedFactor="1.00" vaporized=""/>
    <tripinfo id="Prati_Capraia_100_17" depart="82.00" departLane="b3[0]_1" departPos="0.00" departSpeed="0.00" departDelay="0.00" arrival="134.00" arrivalLane="b3[1]b_0" arrivalPos="241.22" arrivalSpeed="13.59" duration="52.00" routeLength="624.73" waitSteps="0" timeLoss="6.05" rerouteNo="0" devices="tripinfo_Prati_Capraia_100_17" vType="passenger2a" speedFactor="1.00" vaporized=""/>
    <tripinfo id="Pepoli_9_1" depart="1.00" departLane="a210_0" departPos="0.00" departSpeed="0.00" departDelay="0.00" arrival="135.00" arrivalLane="a54_0" arrivalPos="302.30" arrivalSpeed="13.25" duration="134.00" routeLength="1310.48" waitSteps="23" timeLoss="38.70" rerouteNo="0" devices="tripinfo_Pepoli_9_1" vType="passenger2a" speedFactor="1.00" vaporized=""/>
    <tripinfo id="Prati_Capraia_100_18" depart="87.00" departLane="b3[0]_0" departPos="0.00" departSpeed="0.00" departDelay="0.00" arrival="138.00" arrivalLane="b3[1]b_0" arrivalPos="241.22" arrivalSpeed="13.02" duration="51.00" routeLength="624.73" waitSteps="0" timeLoss="5.10" rerouteNo="0" devices="tripinfo_Prati_Capraia_100_18" vType="passenger2b" speedFactor="1.00" vaporized=""/>
    <tripinfo id="Borgo_20_3" depart="18.00" departLane="b6_1" departPos="0.00" departSpeed="0.00" departDelay="0.00" arrival="145.00" arrivalLane="b4[1][1][1]_1" arrivalPos="172.70" arrivalSpeed="13.62" duration="127.00" routeLength="552.91" waitSteps="75" timeLoss="87.05" rerouteNo="0" devices="tripinfo_Borgo_20_3" vType="passenger1" speedFactor="1.00" vaporized=""/>
    <tripinfo id="Borgo_20_4" depart="24.00" departLane="b6_1" departPos="0.00" departSpeed="0.00" departDelay="0.00" arrival="147.00" arrivalLane="b4[1][1][1]_1" arrivalPos="172.70" arrivalSpeed="13.07" duration="123.00" routeLength="552.91" waitSteps="73" timeLoss="82.82" rerouteNo="0" devices="tripinfo_Borgo_20_4" vType="passenger2a" speedFactor="1.00" vaporized=""/>
    <tripinfo id="Malvasia_30_15" depart="72.00" departLane="b52_0" departPos="0.00" departSpeed="0.00" departDelay="0.00" arrival="148.00" arrivalLane="b70_0" arrivalPos="61.95" arrivalSpeed="13.11" duration="76.00" routeLength="961.32" waitSteps="0" timeLoss="6.66" rerouteNo="0" devices="tripinfo_Malvasia_30_15" vType="passenger4" speedFactor="1.00" vaporized=""/>
    <tripinfo id="Pepoli_10_4" depart="6.00" departLane="a210_0" departPos="0.00" departSpeed="0.00" departDelay="0.00" arrival="149.00" arrivalLane="a204[1][1]_0" arrivalPos="436.47" arrivalSpeed="13.89" duration="143.00" routeLength="1470.66" waitSteps="21" timeLoss="36.08" rerouteNo="0" devices="tripinfo_Pepoli_10_4" vType="passenger2a" speedFactor="1.00" vaporized=""/>
    <tripinfo id="Turati_3_2" depart="69.00" departLane="a195_0" departPos="0.00" departSpeed="0.00" departDelay="0.00" arrival="150.00" arrivalLane="a14_0" arrivalPos="90.27" arrivalSpeed="13.73" duration="81.00" routeLength="953.01" waitSteps="0" timeLoss="11.56" rerouteNo="0" devices="tripinfo_Turati_3_2" vType="ignoring5" speedFactor="1.00" vaporized=""/>
    <tripinfo id="Borgo_20_6" depart="36.00" departLane="b6_1" departPos="0.00" departSpeed="0.00" departDelay="0.00" arrival="151.00" arrivalLane="b4[1][1][1]_1" arrivalPos="172.70" arrivalSpeed="13.36" duration="115.00" routeLength="552.91" waitSteps="62" timeLoss="74.45" rerouteNo="0" devices="tripinfo_Borgo_20_6" vType="passenger3" speedFactor="1.00" vaporized=""/>
    <tripinfo id="Pepoli_10_10" depart="17.00" departLane="a210_0" departPos="0.00" departSpeed="0.00" departDelay="0.00" arrival="151.00" arrivalLane="a204[1][1]_0" arrivalPos="436.47" arrivalSpeed="13.83" duration="134.00" routeLength="1470.66" waitSteps="12" timeLoss="27.10" rerouteNo="0" devices="tripinfo_Pepoli_10_10" vType="passenger4" speedFactor="1.00" vaporized=""/>
    <tripinfo id="Borgo_20_7" depart="42.00" departLane="b6_1" departPos="0.00" departSpeed="0.00" departDelay="0.00" arrival="153.00" arrivalLane="b4[1][1][1]_1" arrivalPos="172.70" arrivalSpeed="12.75" duration="111.00" routeLength="552.91" waitSteps="58" timeLoss="70.25" rerouteNo="0" devices="tripinfo_Borgo_20_7" vType="passenger2b" speedFactor="1.00" vaporized=""/>
    <tripinfo id="Pepoli_10_11" depart="20.00" departLane="a210_0" departPos="0.00" departSpeed="0.00" departDelay="2.00" arrival="153.00" arrivalLane="a204[1][1]_0" arrivalPos="436.47" arrivalSpeed="13.68" duration="133.00" routeLength="1470.66" waitSteps="11" timeLoss="26.15" rerouteNo="0" devices="tripinfo_Pepoli_10_11" vType="passenger1" speedFactor="1.00" vaporized=""/>
    <tripinfo id="Pepoli_10_18" depart="30.00" departLane="a210_0" departPos="0.00" departSpeed="0.00" departDelay="0.00" arrival="155.00" arrivalLane="a204[1][1]_0" arrivalPos="436.47" arrivalSpeed="13.45" duration="125.00" routeLength="1470.66" waitSteps="3" timeLoss="18.51" rerouteNo="0" devices="tripinfo_Pepoli_10_18" vType="passenger2a" speedFactor="1.00" vaporized=""/>
    <tripinfo id="Pepoli_8_28" depart="48.00" departLane="a210_0" departPos="0.00" departSpeed="0.00" departDelay="0.00" arrival="155.00" arrivalLane="a134b_0" arrivalPos="158.70" arrivalSpeed="13.33" duration="107.00" routeLength="693.78" waitSteps="43" timeLoss="56.51" rerouteNo="0" devices="tripinfo_Pepoli_8_28" vType="passenger2b" speedFactor="1.00" vaporized=""/>
    <tripinfo id="Pepoli_10_20" depart="34.00" departLane="a210_0" departPos="0.00" departSpeed="0.00" departDelay="0.00" arrival="156.00" arrivalLane="a204[1][1]_1" arrivalPos="436.47" arrivalSpeed="13.10" duration="122.00" routeLength="1470.66" waitSteps="2" timeLoss="15.81" rerouteNo="0" devices="tripinfo_Pepoli_10_20" vType="passenger1" speedFactor="1.00" vaporized=""/>
    <tripinfo id="Pepoli_3_0" depart="0.00" departLane="a210_2" departPos="0.00" departSpeed="0.00" departDelay="0.00" arrival="156.00" arrivalLane="a14_0" arrivalPos="90.27" arrivalSpeed="13.17" duration="156.00" routeLength="1950.08" waitSteps="0" timeLoss="15.08" rerouteNo="0" devices="tripinfo_Pepoli_3_0" vType="ignoring3" speedFactor="1.00" vaporized=""/>
    <tripinfo id="Borgo_20_9" depart="54.00" departLane="b6_1" departPos="0.00" departSpeed="0.00" departDelay="0.00" arrival="157.00" arrivalLane="b4[1][1][1]_1" arrivalPos="172.70" arrivalSpeed="12.82" duration="103.00" routeLength="552.91" waitSteps="49" timeLoss="62.24" rerouteNo="0" devices="tripinfo_Borgo_20_9" vType="passenger1" speedFactor="1.00" vaporized=""/>
    <tripinfo id="Borgo_100_0" depart="0.00" departLane="b6_0" departPos="0.00" departSpeed="0.00" departDelay="0.00" arrival="159.00" arrivalLane="b3[1]b_0" arrivalPos="241.22" arrivalSpeed="13.49" duration="159.00" routeLength="798.33" waitSteps="91" timeLoss="101.35" rerouteNo="0" devices="tripinfo_Borgo_100_0" vType="passenger3" speedFactor="1.00" vaporized=""/>
    <tripinfo id="Pepoli_3_2" depart="3.00" departLane="a210_2" departPos="0.00" departSpeed="0.00" departDelay="0.00" arrival="159.00" arrivalLane="a14_0" arrivalPos="90.27" arrivalSpeed="13.57" duration="156.00" routeLength="1950.08" waitSteps="0" timeLoss="14.90" rerouteNo="0" devices="tripinfo_Pepoli_3_2" vType="ignoring1" speedFactor="1.00" vaporized=""/>
    <tripinfo id="Borgo_20_13" depart="79.00" departLane="b6_1" departPos="0.00" departSpeed="0.00" departDelay="0.00" arrival="160.00" arrivalLane="b4[1][1][1]_1" arrivalPos="172.70" arrivalSpeed="12.71" duration="81.00" routeLength="552.91" waitSteps="28" timeLoss="40.44" rerouteNo="0" devices="tripinfo_Borgo_20_13" vType="passenger1" speedFactor="1.00" vaporized=""/>
    <tripinfo id="Nigrisoli_50_6" depart="37.00" departLane="b65_0" departPos="0.00" departSpeed="0.00" departDelay="0.00" arrival="160.00" arrivalLane="b35[1][1][1][1]_0" arrivalPos="392.80" arrivalSpeed="13.17" duration="123.00" routeLength="1295.00" waitSteps="16" timeLoss="29.65" rerouteNo="0" devices="tripinfo_Nigrisoli_50_6" vType="ignoring2a" speedFactor="1.00" vaporized=""/>
</tripinfos>
